<?xml version="1.0" encoding="UTF-8"?>

<!-- generated on 2025-02-07 00:35:44 by Eclipse SUMO GUI Version 1.22.0
<sumoConfiguration xmlns:xsi="http://www.w3.org/2001/XMLSchema-instance" xsi:noNamespaceSchemaLocation="http://sumo.dlr.de/xsd/sumoConfiguration.xsd">

    <input>
        <net-file value="intelligent_traffic.net.xml"/>
        <route-files value="intelligent_traffic.rou.xml"/>
    </input>

    <output>
        <tripinfo-output value="intelligent_lights_output_file.xml"/>
    </output>

    <time>
        <begin value="0"/>
        <end value="15000"/>
        <step-length value="0.01"/>
    </time>

    <report>
        <duration-log.statistics value="true"/>
    </report>

    <traci_server>
        <remote-port value="62990"/>
    </traci_server>

    <gui_only>
        <gui-settings-file value="intelligent_traffic.gui.xml"/>
        <start value="true"/>
    </gui_only>

</sumoConfiguration>
-->

<detector xmlns:xsi="http://www.w3.org/2001/XMLSchema-instance" xsi:noNamespaceSchemaLocation="http://sumo.dlr.de/xsd/det_e1_file.xsd">
    <interval begin="0.00" end="102.22" id="junction_0_D0.0" nVehContrib="5" flow="176.09" occupancy="1.18" speed="16.60" harmonicMeanSpeed="16.60" length="4.00" nVehEntered="5"/>
    <interval begin="0.00" end="102.22" id="junction_0_D0.1" nVehContrib="5" flow="176.09" occupancy="5.84" speed="10.54" harmonicMeanSpeed="3.35" length="4.00" nVehEntered="5"/>
    <interval begin="0.00" end="102.22" id="junction_0_D0.2" nVehContrib="2" flow="70.44" occupancy="0.87" speed="11.28" harmonicMeanSpeed="9.00" length="4.00" nVehEntered="2"/>
    <interval begin="0.00" end="102.22" id="junction_0_D1.0" nVehContrib="3" flow="105.65" occupancy="0.71" speed="16.60" harmonicMeanSpeed="16.60" length="4.00" nVehEntered="3"/>
    <interval begin="0.00" end="102.22" id="junction_0_D1.1" nVehContrib="5" flow="176.09" occupancy="7.90" speed="7.64" harmonicMeanSpeed="2.48" length="4.00" nVehEntered="5"/>
    <interval begin="0.00" end="102.22" id="junction_0_D1.2" nVehContrib="6" flow="211.31" occupancy="13.73" speed="10.17" harmonicMeanSpeed="2.95" length="4.00" nVehEntered="7"/>
    <interval begin="0.00" end="102.22" id="junction_0_D2.0" nVehContrib="4" flow="140.87" occupancy="0.94" speed="16.60" harmonicMeanSpeed="16.60" length="4.00" nVehEntered="4"/>
    <interval begin="0.00" end="102.22" id="junction_0_D2.1" nVehContrib="3" flow="105.65" occupancy="3.04" speed="11.58" harmonicMeanSpeed="3.87" length="4.00" nVehEntered="3"/>
    <interval begin="0.00" end="102.22" id="junction_0_D2.2" nVehContrib="6" flow="211.31" occupancy="2.34" speed="12.30" harmonicMeanSpeed="10.03" length="4.00" nVehEntered="6"/>
    <interval begin="0.00" end="102.22" id="junction_0_D3.0" nVehContrib="5" flow="176.09" occupancy="1.18" speed="16.60" harmonicMeanSpeed="16.60" length="4.00" nVehEntered="5"/>
    <interval begin="0.00" end="102.22" id="junction_0_D3.1" nVehContrib="5" flow="176.09" occupancy="5.69" speed="10.42" harmonicMeanSpeed="3.44" length="4.00" nVehEntered="5"/>
    <interval begin="0.00" end="102.22" id="junction_0_D3.2" nVehContrib="3" flow="105.65" occupancy="0.71" speed="16.60" harmonicMeanSpeed="16.60" length="4.00" nVehEntered="3"/>
</detector>
